# Probe 0 (6 0.05 0.02)
# Probe 1 (7.5 0.05 0.02)
# Probe 2 (7.35 0.05 0.02)
# Probe 3 (7.725 0.05 0.02)
#       Probe             0             1             2             3
#        Time
   0.00119904     0.0740411     0.0740411     0.0740411     0.0740411
   0.00263616     0.0740411     0.0740411     0.0740412     0.0740411
   0.00435873      0.074041     0.0740411     0.0740412      0.074041
   0.00642437      0.074041     0.0740411     0.0740413      0.074041
   0.00890212      0.074041     0.0740411     0.0740413     0.0740409
    0.0118695     0.0740409     0.0740411     0.0740413     0.0740409
    0.0154239     0.0740409     0.0740412     0.0740413     0.0740408
    0.0196861     0.0740409     0.0740411     0.0740413     0.0740408
    0.0247919     0.0740409     0.0740411     0.0740413     0.0740408
     0.030887     0.0740409      0.074041     0.0740413     0.0740408
    0.0381736     0.0740408     0.0740408     0.0740413     0.0740409
    0.0468387     0.0740407     0.0740408     0.0740414     0.0740409
    0.0571991     0.0740406     0.0740399     0.0740406     0.0740409
    0.0689841     0.0740413     0.0740497     0.0740464     0.0740416
    0.0707276     0.0740415     0.0740328     0.0740352     0.0740404
    0.0727048     0.0740415      0.074018     0.0740267       0.07404
    0.0731587     0.0740414     0.0740173     0.0740263     0.0740401
    0.0737032     0.0740414     0.0740165     0.0740258     0.0740401
    0.0743565     0.0740414     0.0740164     0.0740256     0.0740402
    0.0751402     0.0740413     0.0740175      0.074026     0.0740403
    0.0760801     0.0740411     0.0740203     0.0740273     0.0740405
    0.0772069     0.0740409     0.0740255     0.0740298     0.0740409
     0.078558     0.0740406     0.0740331     0.0740338     0.0740413
    0.0801774     0.0740403     0.0740422     0.0740388     0.0740417
    0.0811415       0.07404     0.0740465     0.0740412     0.0740419
    0.0822662     0.0740398     0.0740503     0.0740434      0.074042
    0.0836138     0.0740394     0.0740528     0.0740449     0.0740421
      0.08523     0.0740391     0.0740527     0.0740449     0.0740421
    0.0871681     0.0740387     0.0740493      0.074043      0.074042
    0.0894908     0.0740382     0.0740423      0.074039     0.0740419
    0.0922416     0.0740378     0.0740349     0.0740343     0.0740421
    0.0947773     0.0740376     0.0740341      0.074033     0.0740426
    0.0978149     0.0740374     0.0740386     0.0740348     0.0740433
     0.101453     0.0740373     0.0740443      0.074038     0.0740436
     0.105632     0.0740369     0.0740424     0.0740376      0.074043
     0.110629     0.0740368     0.0740368     0.0740335     0.0740422
     0.116085     0.0740378     0.0740442     0.0740365     0.0740436
     0.121609     0.0740379     0.0740359     0.0740368     0.0740441
     0.126489     0.0740383     0.0740425     0.0740371     0.0740428
     0.132313     0.0740385     0.0740412     0.0740347     0.0740416
     0.138936     0.0740378      0.074036     0.0740395     0.0740439
     0.146624     0.0740411     0.0740442     0.0740315     0.0740389
     0.150707     0.0740331     0.0740328     0.0740454     0.0740443
     0.153361     0.0740358     0.0740322     0.0740423     0.0740442
     0.156544     0.0740412      0.074037     0.0740368     0.0740423
     0.160244     0.0740436     0.0740436     0.0740349     0.0740407
     0.164595     0.0740382     0.0740416     0.0740405     0.0740413
     0.169509      0.074037     0.0740339     0.0740403     0.0740418
     0.175399      0.074044     0.0740419      0.074038     0.0740403
     0.180685      0.074036     0.0740356     0.0740447     0.0740423
     0.184015     0.0740414     0.0740375     0.0740384     0.0740407
     0.187996     0.0740457     0.0740419     0.0740365       0.07404
     0.192717     0.0740409     0.0740399     0.0740438      0.074043
     0.198028     0.0740403     0.0740342     0.0740411     0.0740432
     0.204343     0.0740465     0.0740461     0.0740379      0.074038
     0.210108     0.0740336     0.0740301     0.0740434     0.0740445
     0.211932     0.0740398     0.0740363     0.0740411     0.0740426
     0.214068     0.0740466     0.0740443     0.0740393     0.0740404
     0.216628     0.0740505     0.0740507     0.0740388     0.0740391
     0.219688     0.0740464     0.0740488     0.0740407     0.0740407
     0.223352     0.0740374      0.074039      0.074043     0.0740441
      0.22755     0.0740357     0.0740349      0.074043      0.074045
      0.23247     0.0740461     0.0740476     0.0740409     0.0740404
     0.237093     0.0740398     0.0740433     0.0740421     0.0740425
     0.242355     0.0740372     0.0740369     0.0740409     0.0740442
     0.248515     0.0740476     0.0740519     0.0740411     0.0740388
     0.252512     0.0740358      0.074038     0.0740414     0.0740438
     0.256735     0.0740372     0.0740364     0.0740414     0.0740444
     0.261657     0.0740495     0.0740515      0.074042     0.0740392
     0.265156     0.0740429     0.0740466     0.0740413     0.0740404
     0.269262     0.0740364     0.0740389       0.07404     0.0740425
     0.274133     0.0740432     0.0740436     0.0740411     0.0740413
     0.279591     0.0740472     0.0740495     0.0740433     0.0740399
     0.285966     0.0740385     0.0740359     0.0740401     0.0740428
     0.292017     0.0740571     0.0740606     0.0740462     0.0740364
     0.293979      0.074045     0.0740454     0.0740428     0.0740409
     0.296271     0.0740334     0.0740301     0.0740391     0.0740454
     0.298998     0.0740287      0.074022     0.0740373     0.0740471
     0.302259     0.0740398     0.0740341     0.0740399     0.0740425
     0.306114     0.0740541      0.074054     0.0740435     0.0740364
     0.309885     0.0740495     0.0740502     0.0740419      0.074038
     0.314309     0.0740369     0.0740319     0.0740384     0.0740431
     0.319278     0.0740431     0.0740384     0.0740413     0.0740415
     0.325046     0.0740495     0.0740539      0.074043     0.0740386
     0.330625     0.0740328      0.074024     0.0740373     0.0740461
      0.33315     0.0740422     0.0740371     0.0740407     0.0740418
     0.336168     0.0740515     0.0740523      0.074044     0.0740374
     0.339776     0.0740498     0.0740526     0.0740439     0.0740381
     0.344091      0.074036     0.0740319       0.07404     0.0740446
     0.348464      0.074037     0.0740311     0.0740417      0.074045
     0.353635     0.0740472     0.0740496     0.0740456     0.0740397
     0.359458     0.0740348     0.0740303     0.0740414     0.0740455
     0.363387     0.0740426     0.0740392     0.0740448     0.0740426
     0.368068     0.0740453     0.0740441     0.0740458     0.0740413
     0.373661     0.0740342     0.0740292     0.0740418     0.0740467
     0.377199     0.0740429      0.074039     0.0740452     0.0740436
     0.381407     0.0740473     0.0740456     0.0740467     0.0740413
     0.386437     0.0740358     0.0740347     0.0740419     0.0740451
     0.392066     0.0740394     0.0740384     0.0740444      0.074044
     0.398746     0.0740407     0.0740453     0.0740442       0.07404
     0.406455     0.0740306     0.0740228     0.0740406     0.0740495
     0.408605     0.0740419     0.0740486     0.0740444     0.0740367
      0.41108     0.0740505     0.0740725     0.0740471     0.0740267
     0.413981     0.0740487     0.0740751     0.0740468     0.0740282
     0.417408     0.0740348     0.0740469     0.0740427      0.074042
     0.420278     0.0740286     0.0740301     0.0740407     0.0740478
     0.423516     0.0740322     0.0740298     0.0740409     0.0740441
     0.427385     0.0740424     0.0740511     0.0740423     0.0740332
     0.431723     0.0740445     0.0740618     0.0740419     0.0740307
     0.436708     0.0740338     0.0740368     0.0740392     0.0740409
     0.441693     0.0740439     0.0740433     0.0740419      0.074032
     0.447449     0.0740457     0.0740563     0.0740419     0.0740329
     0.453588     0.0740369     0.0740277     0.0740409     0.0740399
     0.457331     0.0740492     0.0740534     0.0740412     0.0740279
     0.460973     0.0740496     0.0740588     0.0740407     0.0740272
     0.465056     0.0740381     0.0740371     0.0740394     0.0740358
     0.469708     0.0740348     0.0740278     0.0740401      0.074036
     0.475011     0.0740458     0.0740524     0.0740424     0.0740256
     0.478682     0.0740371     0.0740388     0.0740427     0.0740354
     0.482755     0.0740325     0.0740276     0.0740427     0.0740405
     0.487292     0.0740418     0.0740399      0.074043     0.0740331
     0.492319     0.0740433     0.0740471      0.074043     0.0740349
     0.496976     0.0740346     0.0740315     0.0740427     0.0740431
     0.501767     0.0740399      0.074036     0.0740427     0.0740391
     0.506338     0.0740436      0.074045     0.0740426     0.0740382
      0.51104     0.0740399      0.074039     0.0740427     0.0740436
     0.516241     0.0740416     0.0740378     0.0740429     0.0740435
     0.521739     0.0740451     0.0740465     0.0740423     0.0740418
     0.526382     0.0740409     0.0740367     0.0740418     0.0740457
     0.531315     0.0740426     0.0740384     0.0740416     0.0740441
     0.536466     0.0740448     0.0740449     0.0740418     0.0740417
     0.541674     0.0740411      0.074038     0.0740425     0.0740448
     0.547476      0.074044     0.0740432     0.0740431     0.0740433
     0.553761     0.0740417     0.0740404     0.0740428     0.0740453
     0.560323     0.0740432     0.0740397      0.074041     0.0740415
     0.567087     0.0740398     0.0740411     0.0740424      0.074049
     0.573361     0.0740494     0.0740404     0.0740378     0.0740284
     0.576643     0.0740392     0.0740442      0.074044     0.0740521
     0.580325     0.0740336     0.0740451     0.0740456      0.074061
     0.583881     0.0740409     0.0740428     0.0740404     0.0740425
     0.586637      0.074046     0.0740427     0.0740383     0.0740343
     0.589866     0.0740463     0.0740435     0.0740383     0.0740348
     0.593699     0.0740393     0.0740442       0.07404     0.0740453
     0.598068     0.0740349     0.0740438     0.0740404     0.0740484
      0.60303     0.0740428     0.0740438     0.0740385     0.0740358
     0.607813     0.0740407     0.0740453     0.0740404     0.0740424
     0.613186     0.0740351     0.0740444     0.0740407     0.0740463
     0.619137     0.0740435      0.074045     0.0740396     0.0740363
     0.623839     0.0740346      0.074044     0.0740392     0.0740491
     0.628426      0.074038     0.0740439     0.0740392     0.0740431
     0.633315     0.0740441     0.0740447     0.0740396     0.0740369
     0.638871     0.0740378     0.0740447     0.0740395     0.0740474
     0.644992     0.0740443     0.0740458       0.07404     0.0740407
     0.648052     0.0740426     0.0740448     0.0740392     0.0740457
     0.651503     0.0740412     0.0740437     0.0740382     0.0740483
     0.655555     0.0740431     0.0740434     0.0740381      0.074044
     0.660273     0.0740468     0.0740436     0.0740388     0.0740393
     0.665582     0.0740448     0.0740425     0.0740381     0.0740447
     0.671553     0.0740445     0.0740425     0.0740392     0.0740408
     0.678122     0.0740463     0.0740425     0.0740414     0.0740423
     0.685275      0.074039     0.0740392      0.074037     0.0740375
     0.688696     0.0740481     0.0740424     0.0740464     0.0740425
     0.691718     0.0740487     0.0740416     0.0740465     0.0740423
     0.695182     0.0740428     0.0740397     0.0740418     0.0740395
     0.699301     0.0740372     0.0740392     0.0740401     0.0740376
     0.703927     0.0740413     0.0740404     0.0740466       0.07404
     0.709214      0.074043     0.0740395     0.0740456     0.0740406
     0.715273     0.0740359     0.0740407     0.0740436     0.0740389
      0.71897     0.0740416     0.0740387     0.0740477     0.0740408
      0.72262     0.0740413     0.0740379     0.0740471     0.0740408
     0.726887     0.0740351      0.074039     0.0740449     0.0740397
     0.731596     0.0740342     0.0740395     0.0740469     0.0740407
     0.737074     0.0740383     0.0740376     0.0740464     0.0740425
      0.74244     0.0740308     0.0740405     0.0740444     0.0740418
     0.745151      0.074033     0.0740392     0.0740467     0.0740431
     0.748336     0.0740353     0.0740373     0.0740474     0.0740443
      0.75215     0.0740344     0.0740371      0.074045      0.074044
     0.756656     0.0740306     0.0740394     0.0740424     0.0740427
     0.761833     0.0740331     0.0740386     0.0740437      0.074044
      0.76794     0.0740367     0.0740369     0.0740402     0.0740443
     0.774766     0.0740324     0.0740429     0.0740419     0.0740423
     0.778127     0.0740413     0.0740342     0.0740374     0.0740445
     0.780513     0.0740431     0.0740327     0.0740357     0.0740439
     0.783327     0.0740414     0.0740352     0.0740359     0.0740418
      0.78666     0.0740377     0.0740398     0.0740377     0.0740391
     0.790611     0.0740374     0.0740409     0.0740386     0.0740379
     0.795264      0.074044     0.0740353     0.0740352     0.0740382
     0.800258     0.0740437     0.0740379     0.0740362     0.0740359
     0.806133     0.0740399     0.0740417     0.0740416     0.0740351
     0.812595     0.0740478     0.0740339     0.0740333     0.0740355
     0.815351     0.0740405      0.074043     0.0740411     0.0740335
      0.81848     0.0740358     0.0740489      0.074047     0.0740327
      0.82204     0.0740399     0.0740449     0.0740437     0.0740345
     0.826178     0.0740481     0.0740375     0.0740363     0.0740365
     0.829655     0.0740459     0.0740416     0.0740391     0.0740362
      0.83371     0.0740401     0.0740483     0.0740461     0.0740363
     0.838462     0.0740411     0.0740459     0.0740461     0.0740387
     0.844032     0.0740473     0.0740409     0.0740404     0.0740394
     0.849231      0.074039     0.0740499     0.0740494     0.0740389
     0.853306     0.0740446     0.0740428     0.0740446     0.0740406
      0.85789     0.0740479     0.0740401     0.0740421      0.074041
     0.863153     0.0740407     0.0740473     0.0740508     0.0740408
     0.867178     0.0740437      0.074041     0.0740486     0.0740433
     0.871922      0.074046     0.0740378     0.0740466     0.0740437
      0.87749     0.0740403     0.0740437     0.0740525     0.0740423
     0.881866     0.0740443     0.0740347      0.074048     0.0740455
     0.886788     0.0740446     0.0740342     0.0740467     0.0740447
     0.892449     0.0740398     0.0740391     0.0740505     0.0740437
     0.897337     0.0740455     0.0740287     0.0740435     0.0740478
      0.90247     0.0740426     0.0740358     0.0740467     0.0740449
     0.907889     0.0740415     0.0740347      0.074047     0.0740465
     0.914029     0.0740465     0.0740304     0.0740394     0.0740458
     0.920643     0.0740369     0.0740426     0.0740494     0.0740424
     0.922578     0.0740436      0.074034     0.0740401     0.0740451
      0.92479     0.0740501     0.0740263     0.0740316     0.0740474
     0.927384     0.0740526     0.0740242     0.0740284     0.0740478
     0.930409     0.0740472     0.0740322     0.0740358     0.0740455
     0.933889     0.0740385     0.0740431      0.074046     0.0740432
     0.937778     0.0740373     0.0740437     0.0740451     0.0740444
     0.941926     0.0740452     0.0740348     0.0740336     0.0740468
     0.946393      0.074045     0.0740369      0.074034     0.0740448
     0.951266     0.0740361     0.0740462     0.0740428     0.0740424
     0.955697       0.07404     0.0740407     0.0740358     0.0740441
     0.960619     0.0740421     0.0740408     0.0740337     0.0740422
     0.966245     0.0740343     0.0740503     0.0740433     0.0740386
     0.969996     0.0740393     0.0740443     0.0740349       0.07404
     0.974282     0.0740411     0.0740441     0.0740317     0.0740384
     0.978568     0.0740354     0.0740524     0.0740396     0.0740348
     0.982855     0.0740359     0.0740525     0.0740393     0.0740351
     0.987141     0.0740407     0.0740492      0.074034     0.0740359
     0.991427     0.0740404     0.0740521      0.074036     0.0740346
     0.995714     0.0740382     0.0740547       0.07404     0.0740343
            1     0.0740397     0.0740523     0.0740385     0.0740355
      1.00513     0.0740419     0.0740502     0.0740357     0.0740355
      1.01112      0.074039     0.0740524     0.0740391     0.0740351
      1.01789     0.0740449     0.0740437      0.074032      0.074039
      1.02436     0.0740329     0.0740594     0.0740488     0.0740327
      1.02619     0.0740418     0.0740462      0.074037     0.0740398
      1.02832     0.0740508     0.0740339     0.0740257     0.0740463
      1.03077     0.0740551     0.0740278     0.0740216     0.0740491
       1.0336     0.0740493     0.0740343     0.0740324     0.0740448
      1.03693     0.0740381     0.0740471     0.0740474     0.0740384
      1.04037     0.0740343     0.0740497     0.0740494     0.0740387
      1.04419     0.0740426     0.0740374     0.0740363     0.0740459
      1.04854     0.0740494     0.0740295     0.0740329     0.0740491
      1.05339     0.0740403     0.0740399     0.0740507     0.0740429
      1.05754     0.0740409      0.074036     0.0740464      0.074047
      1.06233     0.0740462       0.07403     0.0740383     0.0740505
      1.06769      0.074042     0.0740356     0.0740487     0.0740451
      1.07363     0.0740418     0.0740292      0.074046     0.0740496
      1.07945     0.0740441     0.0740346     0.0740407      0.074045
      1.08462     0.0740383     0.0740289     0.0740472     0.0740508
       1.0902     0.0740427     0.0740357     0.0740421     0.0740457
      1.09586     0.0740376     0.0740322     0.0740416      0.074049
      1.10158     0.0740405     0.0740373     0.0740414     0.0740461
      1.10712     0.0740354     0.0740324     0.0740423     0.0740464
      1.11132     0.0740391     0.0740379     0.0740393     0.0740467
      1.11602     0.0740383     0.0740397     0.0740407     0.0740456
      1.12128     0.0740346     0.0740367     0.0740431     0.0740453
       1.1267     0.0740397     0.0740435     0.0740394     0.0740466
       1.1313     0.0740353     0.0740415     0.0740434     0.0740453
      1.13653     0.0740368     0.0740435     0.0740424      0.074045
        1.142      0.074039     0.0740475     0.0740406     0.0740442
      1.14808     0.0740352     0.0740435     0.0740434     0.0740429
      1.15331     0.0740427     0.0740524     0.0740389     0.0740415
      1.15552     0.0740396     0.0740485     0.0740407     0.0740407
      1.15817     0.0740362     0.0740439     0.0740426     0.0740399
      1.16133     0.0740356     0.0740424     0.0740429     0.0740392
      1.16513     0.0740398     0.0740471     0.0740403     0.0740385
      1.16957     0.0740425     0.0740507     0.0740386     0.0740371
      1.17457     0.0740377     0.0740442     0.0740409     0.0740359
      1.18026     0.0740408     0.0740464     0.0740392     0.0740358
      1.18539     0.0740411     0.0740477     0.0740395      0.074034
      1.19125     0.0740422     0.0740446     0.0740396     0.0740355
      1.19777      0.074046     0.0740478     0.0740403     0.0740336
       1.2023     0.0740438     0.0740403     0.0740407     0.0740374
      1.20742     0.0740474     0.0740443     0.0740411     0.0740349
      1.21312     0.0740483     0.0740441     0.0740418     0.0740353
      1.21931     0.0740467     0.0740368     0.0740424     0.0740392
      1.22266     0.0740505     0.0740442     0.0740428     0.0740356
      1.22659     0.0740516     0.0740459     0.0740433     0.0740351
      1.23119      0.074048     0.0740363     0.0740441     0.0740405
      1.23526     0.0740488     0.0740377     0.0740443     0.0740402
      1.24007     0.0740505     0.0740425     0.0740446     0.0740383
      1.24554     0.0740472     0.0740366     0.0740457     0.0740419
      1.25162     0.0740488     0.0740396     0.0740466     0.0740403
      1.25642     0.0740447     0.0740364     0.0740475     0.0740425
      1.26177     0.0740452     0.0740374      0.074049     0.0740409
      1.26644     0.0740431     0.0740367     0.0740491      0.074041
      1.27164     0.0740406     0.0740356     0.0740489      0.074041
       1.2767     0.0740397     0.0740364     0.0740487     0.0740396
      1.28222     0.0740372     0.0740357     0.0740479     0.0740399
      1.28698     0.0740359     0.0740361     0.0740471     0.0740391
       1.2917     0.0740344      0.074036     0.0740458     0.0740388
      1.29655     0.0740327     0.0740359     0.0740441     0.0740392
      1.30023     0.0740321     0.0740363     0.0740427     0.0740392
      1.30445     0.0740316     0.0740367     0.0740411     0.0740393
      1.30928     0.0740309      0.074037     0.0740392     0.0740401
      1.31371     0.0740309     0.0740377     0.0740378     0.0740407
      1.31875     0.0740314     0.0740384     0.0740366     0.0740411
      1.32323     0.0740319     0.0740387     0.0740357     0.0740418
      1.32821     0.0740329     0.0740391     0.0740349     0.0740425
      1.33381     0.0740346     0.0740396     0.0740347     0.0740427
      1.33914     0.0740358     0.0740398     0.0740348     0.0740428
      1.34238     0.0740371     0.0740403      0.074035     0.0740427
      1.34609     0.0740384     0.0740407     0.0740354     0.0740425
      1.35023     0.0740394      0.074041      0.074036     0.0740424
      1.35468     0.0740402     0.0740411     0.0740367     0.0740424
       1.3592     0.0740411     0.0740414     0.0740376     0.0740424
      1.36301     0.0740414     0.0740416     0.0740383     0.0740426
       1.3674     0.0740413     0.0740417     0.0740392     0.0740428
      1.37183     0.0740414     0.0740419     0.0740401     0.0740431
      1.37681     0.0740415     0.0740423     0.0740412     0.0740433
      1.38238     0.0740412     0.0740425     0.0740422     0.0740437
      1.38634     0.0740414     0.0740429     0.0740429     0.0740438
      1.39075     0.0740417     0.0740433     0.0740436     0.0740438
      1.39566     0.0740419     0.0740438     0.0740442     0.0740439
       1.3992     0.0740423     0.0740444     0.0740445      0.074044
      1.40326     0.0740429     0.0740453     0.0740449     0.0740441
      1.40778     0.0740434     0.0740461     0.0740451     0.0740441
      1.41192     0.0740437     0.0740469     0.0740451     0.0740442
      1.41659      0.074044     0.0740478     0.0740448     0.0740442
       1.4205      0.074044     0.0740484     0.0740445     0.0740441
      1.42499     0.0740437     0.0740488     0.0740441     0.0740439
      1.43013     0.0740432     0.0740491     0.0740433     0.0740436
       1.4334     0.0740429     0.0740493     0.0740426     0.0740433
      1.43688     0.0740424     0.0740493      0.074042     0.0740429
      1.44074     0.0740419     0.0740492     0.0740411     0.0740425
      1.44511     0.0740413     0.0740489     0.0740402     0.0740421
      1.44886     0.0740409     0.0740486     0.0740395     0.0740418
      1.45303     0.0740405     0.0740482     0.0740388     0.0740416
      1.45771     0.0740399     0.0740477     0.0740379     0.0740413
      1.46222     0.0740395     0.0740472     0.0740371     0.0740411
      1.46599     0.0740394     0.0740466     0.0740364      0.074041
      1.47009     0.0740394      0.074046     0.0740357     0.0740409
      1.47466     0.0740393      0.074045     0.0740349     0.0740408
      1.47852     0.0740394     0.0740441     0.0740343     0.0740407
      1.48287     0.0740397     0.0740428     0.0740338     0.0740407
       1.4877       0.07404     0.0740414     0.0740334     0.0740407
      1.49068     0.0740403     0.0740405     0.0740332     0.0740408
      1.49373     0.0740406     0.0740396      0.074033     0.0740408
      1.49715     0.0740411     0.0740388     0.0740329     0.0740409
      1.50099     0.0740417     0.0740379     0.0740328      0.074041
      1.50477     0.0740423     0.0740371     0.0740328     0.0740412
      1.50904     0.0740432     0.0740365     0.0740329     0.0740414
       1.5131     0.0740441      0.074036     0.0740332     0.0740416
      1.51756     0.0740451     0.0740358     0.0740337     0.0740419
      1.52259     0.0740463     0.0740358     0.0740345     0.0740421
      1.52629     0.0740471      0.074036     0.0740352     0.0740421
      1.53045     0.0740479     0.0740364      0.074036     0.0740421
      1.53505     0.0740487      0.074037      0.074037      0.074042
      1.53819      0.074049     0.0740375     0.0740377     0.0740419
      1.54174     0.0740493      0.074038     0.0740384     0.0740417
       1.5458     0.0740495     0.0740387     0.0740393     0.0740415
      1.54929     0.0740494     0.0740393     0.0740401     0.0740413
      1.55263     0.0740492     0.0740399     0.0740407     0.0740411
      1.55607     0.0740488     0.0740404     0.0740414     0.0740409
      1.55936     0.0740483     0.0740408     0.0740419     0.0740406
      1.56309     0.0740477     0.0740411     0.0740425     0.0740403
      1.56633      0.074047     0.0740414     0.0740429       0.07404
      1.57014     0.0740462     0.0740416     0.0740433     0.0740397
      1.57443     0.0740453     0.0740417     0.0740436     0.0740392
      1.57916     0.0740442     0.0740418     0.0740438     0.0740388
      1.58317     0.0740434     0.0740418     0.0740438     0.0740384
      1.58765     0.0740426     0.0740417     0.0740437      0.074038
       1.5903     0.0740422     0.0740417     0.0740436     0.0740378
      1.59326     0.0740417     0.0740416     0.0740434     0.0740377
      1.59657     0.0740412     0.0740415     0.0740432     0.0740375
      1.60024     0.0740408     0.0740413      0.074043     0.0740374
      1.60408     0.0740403     0.0740411     0.0740428     0.0740374
      1.60693     0.0740399     0.0740409     0.0740426     0.0740375
      1.61018     0.0740395     0.0740407     0.0740425     0.0740376
      1.61379      0.074039     0.0740404     0.0740424     0.0740379
      1.61794     0.0740384     0.0740401     0.0740424     0.0740382
      1.62244     0.0740377     0.0740397     0.0740424     0.0740387
      1.62716     0.0740368     0.0740394     0.0740426     0.0740394
      1.63104     0.0740361     0.0740392     0.0740427       0.07404
      1.63523     0.0740352      0.074039     0.0740429     0.0740407
      1.63991     0.0740342     0.0740389     0.0740432     0.0740416
      1.64225     0.0740337     0.0740389     0.0740433      0.074042
       1.6449     0.0740331     0.0740389     0.0740435     0.0740424
      1.64793     0.0740325      0.074039     0.0740437     0.0740429
      1.65145     0.0740317     0.0740391     0.0740439     0.0740434
      1.65524      0.074031     0.0740393     0.0740441     0.0740438
       1.6592     0.0740303     0.0740395     0.0740444     0.0740442
      1.66363     0.0740297     0.0740397     0.0740446     0.0740445
      1.66741     0.0740294       0.07404     0.0740449     0.0740447
      1.67077     0.0740293     0.0740401     0.0740451     0.0740447
       1.6746     0.0740294     0.0740404     0.0740454     0.0740447
      1.67882     0.0740297     0.0740407     0.0740456     0.0740446
      1.68348     0.0740303      0.074041     0.0740459     0.0740445
      1.68703      0.074031     0.0740413      0.074046     0.0740443
      1.69076      0.074032     0.0740417      0.074046      0.074044
      1.69488     0.0740331     0.0740421      0.074046     0.0740437
      1.69747      0.074034     0.0740423     0.0740459     0.0740435
      1.70038      0.074035     0.0740425     0.0740458     0.0740432
      1.70375     0.0740362     0.0740427     0.0740456     0.0740429
      1.70736     0.0740375      0.074043     0.0740454     0.0740425
      1.71137     0.0740391     0.0740432     0.0740451     0.0740421
      1.71543     0.0740406     0.0740434     0.0740448     0.0740416
      1.71903      0.074042     0.0740435     0.0740444     0.0740412
      1.72299     0.0740435     0.0740435     0.0740439     0.0740408
       1.7256     0.0740446     0.0740435     0.0740436     0.0740406
      1.72862     0.0740457     0.0740433     0.0740432     0.0740404
      1.73214     0.0740472      0.074043     0.0740426     0.0740401
      1.73581     0.0740486     0.0740426     0.0740421     0.0740399
      1.73988     0.0740503     0.0740421     0.0740414     0.0740398
      1.74414      0.074052     0.0740414     0.0740408     0.0740397
      1.74796     0.0740535     0.0740408     0.0740402     0.0740397
      1.75216      0.074055       0.07404     0.0740395     0.0740397
      1.75684     0.0740566     0.0740392     0.0740388     0.0740398
      1.76201     0.0740581     0.0740383     0.0740382     0.0740398
      1.76619      0.074059     0.0740377     0.0740378     0.0740399
      1.77029     0.0740595     0.0740372     0.0740376       0.07404
      1.77339     0.0740596     0.0740368     0.0740375       0.07404
      1.77693     0.0740596     0.0740365     0.0740374       0.07404
      1.78031     0.0740593     0.0740363     0.0740374       0.07404
      1.78364     0.0740588     0.0740361     0.0740375       0.07404
      1.78737     0.0740579     0.0740359     0.0740377       0.07404
      1.79075      0.074057     0.0740359     0.0740379     0.0740399
      1.79412     0.0740559     0.0740359     0.0740382     0.0740399
      1.79794     0.0740545     0.0740359     0.0740385     0.0740398
      1.80233     0.0740527     0.0740361     0.0740389     0.0740398
      1.80672     0.0740507     0.0740363     0.0740393     0.0740397
      1.81132     0.0740485     0.0740366     0.0740398     0.0740397