# Probe 0 (6 0.05 0.2)
# Probe 1 (7.5 0.05 0.2)
# Probe 2 (7.35 0.05 0.2)
# Probe 3 (7.725 0.05 0.2)
#       Probe             0             1             2             3
#        Time
   0.00119048          0.74          0.74          0.74          0.74
   0.00260204          0.74          0.74          0.74          0.74
   0.00428132          0.74          0.74          0.74          0.74
   0.00627546          0.74          0.74          0.74          0.74
   0.00861857          0.74          0.74          0.74          0.74
    0.0113877          0.74          0.74          0.74          0.74
    0.0146696          0.74          0.74          0.74          0.74
    0.0185483          0.74          0.74          0.74          0.74
    0.0230734          0.74          0.74          0.74          0.74
    0.0282018          0.74          0.74          0.74          0.74
     0.034185          0.74          0.74          0.74          0.74
    0.0407665          0.74          0.74          0.74          0.74
    0.0481707          0.74          0.74          0.74          0.74
    0.0568089          0.74          0.74          0.74          0.74
    0.0654471          0.74          0.74          0.74          0.74
    0.0740853          0.74          0.74          0.74          0.74
    0.0827236          0.74          0.74          0.74          0.74
    0.0913618          0.74          0.74          0.74          0.74
          0.1          0.74          0.74          0.74          0.74
         0.11          0.74          0.74          0.74          0.74
      0.12125          0.74          0.74          0.74          0.74
     0.134375          0.74          0.74          0.74          0.74
       0.1475          0.74          0.74          0.74          0.74
     0.160625          0.74          0.74          0.74          0.74
      0.17375          0.74          0.74          0.74          0.74
     0.186875          0.74          0.74          0.74          0.74
          0.2          0.74          0.74          0.74          0.74
     0.214286          0.74          0.74          0.74          0.74
     0.231429          0.74          0.74          0.74          0.74
     0.248571          0.74          0.74          0.74          0.74
     0.265714          0.74          0.74          0.74          0.74
     0.282857          0.74          0.74          0.74          0.74
          0.3          0.74          0.74          0.74          0.74
         0.32          0.74          0.74          0.74          0.74
         0.34          0.74          0.74          0.74          0.74
         0.36          0.74          0.74          0.74          0.74
         0.38          0.74          0.74          0.74          0.74
          0.4          0.74          0.74          0.74          0.74
         0.42          0.74          0.74          0.74          0.74
         0.44          0.74          0.74          0.74          0.74
         0.46          0.74          0.74          0.74          0.74
         0.48          0.74          0.74          0.74          0.74
          0.5          0.74          0.74          0.74          0.74
         0.52          0.74          0.74          0.74          0.74
         0.54          0.74          0.74          0.74          0.74
         0.56          0.74          0.74          0.74          0.74
         0.58          0.74          0.74          0.74          0.74
          0.6          0.74          0.74          0.74          0.74
         0.62          0.74          0.74          0.74          0.74
         0.64          0.74          0.74          0.74          0.74
         0.66          0.74          0.74          0.74          0.74
         0.68          0.74          0.74          0.74          0.74
          0.7          0.74          0.74          0.74          0.74
         0.72          0.74          0.74          0.74          0.74
         0.74          0.74          0.74          0.74          0.74
         0.76          0.74          0.74          0.74          0.74
         0.78          0.74          0.74          0.74          0.74
          0.8          0.74          0.74          0.74          0.74
         0.82          0.74          0.74          0.74          0.74
         0.84          0.74          0.74          0.74          0.74
         0.86          0.74          0.74          0.74          0.74
         0.88          0.74          0.74          0.74          0.74
          0.9          0.74          0.74          0.74          0.74
         0.92          0.74          0.74          0.74          0.74
         0.94          0.74          0.74          0.74          0.74
         0.96          0.74          0.74          0.74          0.74
         0.98          0.74          0.74          0.74          0.74
            1          0.74          0.74          0.74          0.74
         1.02          0.74          0.74          0.74          0.74
         1.04          0.74          0.74          0.74          0.74
         1.06          0.74          0.74          0.74          0.74
         1.08          0.74          0.74          0.74          0.74
          1.1          0.74          0.74          0.74          0.74
         1.12          0.74          0.74          0.74          0.74
         1.14          0.74          0.74          0.74          0.74
         1.16          0.74          0.74          0.74          0.74
         1.18          0.74          0.74          0.74          0.74
          1.2          0.74          0.74          0.74          0.74
         1.22          0.74          0.74          0.74          0.74
         1.24          0.74          0.74          0.74          0.74
         1.26          0.74          0.74          0.74          0.74
         1.28          0.74          0.74          0.74          0.74
          1.3          0.74          0.74          0.74          0.74
         1.32          0.74          0.74          0.74          0.74
         1.34          0.74          0.74          0.74          0.74
         1.36          0.74          0.74          0.74          0.74
         1.38          0.74          0.74          0.74          0.74
          1.4          0.74          0.74          0.74          0.74
         1.42          0.74          0.74          0.74          0.74
      1.43333          0.74          0.74          0.74          0.74
      1.44667          0.74          0.74          0.74          0.74
         1.46          0.74          0.74          0.74          0.74
      1.47333          0.74          0.74          0.74          0.74
      1.48667          0.74          0.74          0.74          0.74
          1.5          0.74          0.74          0.74          0.74
      1.51111          0.74          0.74          0.74          0.74
      1.52222          0.74          0.74          0.74          0.74
      1.53194          0.74          0.74          0.74          0.74
      1.54167          0.74          0.74          0.74          0.74
      1.55139          0.74          0.74          0.74          0.74
      1.56111          0.74          0.74          0.74          0.74
      1.57083          0.74          0.74          0.74          0.74
      1.58056          0.74          0.74          0.74          0.74
      1.58704          0.74          0.74          0.74          0.74
      1.59352          0.74          0.74          0.74          0.74
          1.6          0.74          0.74          0.74          0.74
      1.60714          0.74          0.74          0.74          0.74
      1.61488          0.74          0.74          0.74          0.74
      1.62339          0.74          0.74          0.74          0.74
      1.63297          0.74          0.74          0.74          0.74
      1.64254          0.74          0.74          0.74          0.74
      1.65212          0.74          0.74          0.74          0.74
       1.6617          0.74          0.74          0.74          0.74
      1.67127          0.74          0.74          0.74          0.74
      1.68085          0.74          0.74          0.74          0.74
      1.69042          0.74          0.74          0.74          0.74
          1.7          0.74          0.74          0.74          0.74
         1.71          0.74          0.74          0.74          0.74
         1.72          0.74          0.74          0.74          0.74
         1.73          0.74          0.74          0.74          0.74
         1.74          0.74          0.74          0.74          0.74
         1.75          0.74          0.74          0.74          0.74
         1.76          0.74          0.74          0.74          0.74
         1.77          0.74          0.74          0.74          0.74
         1.78          0.74          0.74          0.74          0.74
         1.79          0.74          0.74          0.74          0.74
          1.8          0.74          0.74          0.74          0.74
      1.81111          0.74          0.74          0.74          0.74
      1.82222          0.74          0.74          0.74          0.74
      1.83333          0.74          0.74          0.74          0.74
      1.84444          0.74          0.74          0.74          0.74
      1.85556          0.74          0.74          0.74          0.74
      1.86667          0.74          0.74          0.74          0.74
      1.87778          0.74          0.74          0.74          0.74
      1.88889          0.74          0.74          0.74          0.74
          1.9          0.74          0.74          0.74          0.74
      1.91111          0.74          0.74          0.74          0.74
      1.92222          0.74          0.74          0.74          0.74
      1.93333          0.74          0.74          0.74          0.74
      1.94444          0.74          0.74          0.74          0.74
      1.95556          0.74          0.74          0.74          0.74
      1.96667          0.74          0.74          0.74          0.74
      1.97778          0.74          0.74          0.74          0.74
      1.98889          0.74          0.74          0.74          0.74
            2          0.74          0.74          0.74          0.74
      2.01111          0.74          0.74          0.74          0.74
      2.02222          0.74          0.74          0.74          0.74
      2.03333          0.74          0.74          0.74          0.74
      2.04444          0.74          0.74          0.74          0.74
      2.05556          0.74          0.74          0.74          0.74
      2.06667          0.74          0.74          0.74          0.74
      2.07778          0.74          0.74          0.74          0.74
      2.08889          0.74          0.74          0.74          0.74
          2.1          0.74          0.74          0.74          0.74
       2.1125          0.74          0.74          0.74          0.74
        2.125          0.74          0.74          0.74          0.74
       2.1375          0.74          0.74          0.74          0.74
         2.15          0.74          0.74          0.74          0.74
       2.1625          0.74          0.74          0.74          0.74
        2.175          0.74          0.74          0.74          0.74
       2.1875          0.74          0.74          0.74          0.74
          2.2          0.74          0.74          0.74          0.74
      2.21429          0.74          0.74          0.74          0.74
      2.22857          0.74          0.74          0.74          0.74
      2.24286          0.74          0.74          0.74          0.74
      2.25714          0.74          0.74          0.74          0.74
      2.27143          0.74          0.74          0.74          0.74
      2.28571          0.74          0.74          0.74          0.74
          2.3          0.74          0.74          0.74          0.74
      2.31667          0.74          0.74          0.74          0.74
      2.33333          0.74          0.74          0.74          0.74
         2.35          0.74          0.74          0.74          0.74
      2.36667          0.74          0.74          0.74          0.74
      2.38333          0.74          0.74          0.74          0.74
          2.4          0.74          0.74          0.74          0.74
         2.42          0.74          0.74          0.74          0.74
         2.44          0.74          0.74          0.74          0.74
         2.46          0.74          0.74          0.74          0.74
         2.48          0.74          0.74          0.74          0.74
          2.5          0.74          0.74          0.74          0.74
         2.52          0.74          0.74          0.74          0.74
         2.54          0.74          0.74          0.74          0.74
         2.56          0.74          0.74          0.74          0.74
         2.58          0.74          0.74          0.74          0.74
         2.59          0.74          0.74          0.74          0.74
          2.6          0.74          0.74          0.74          0.74
      2.61111          0.74          0.74          0.74          0.74
      2.62381          0.74          0.74          0.74          0.74
      2.63651          0.74          0.74          0.74          0.74
      2.64921          0.74          0.74          0.74          0.74
       2.6619          0.74          0.74          0.74          0.74
       2.6746          0.74          0.74          0.74          0.74
       2.6873          0.74          0.74          0.74          0.74
          2.7          0.74          0.74          0.74          0.74
      2.71429          0.74          0.74          0.74          0.74
      2.72857          0.74          0.74          0.74          0.74
      2.74048          0.74          0.74          0.74          0.74
      2.75238          0.74          0.74          0.74          0.74
      2.76429          0.74          0.74          0.74          0.74
      2.77619          0.74          0.74          0.74          0.74
       2.7881          0.74          0.74          0.74          0.74
          2.8          0.74          0.74          0.74          0.74
       2.8125          0.74          0.74          0.74          0.74
      2.82344          0.74          0.74          0.74          0.74
      2.83438          0.74          0.74          0.74          0.74
      2.84531          0.74          0.74          0.74          0.74
      2.85625          0.74          0.74          0.74          0.74
      2.86719          0.74          0.74          0.74          0.74
      2.87539          0.74          0.74          0.74          0.74
      2.88359          0.74          0.74          0.74          0.74
       2.8918          0.74          0.74          0.74          0.74
          2.9          0.74          0.74          0.74          0.74
      2.90909          0.74          0.74          0.74          0.74
      2.91919          0.74          0.74          0.74          0.74
      2.92929          0.74          0.74          0.74          0.74
      2.93939          0.74          0.74          0.74          0.74
      2.94949          0.74          0.74          0.74          0.74
       2.9596          0.74          0.74          0.74          0.74
       2.9697          0.74          0.74          0.74          0.74
       2.9798          0.74          0.74          0.74          0.74
       2.9899          0.74          0.74          0.74          0.74
            3          0.74          0.74          0.74          0.74
      3.01111          0.74          0.74          0.74          0.74
      3.02222          0.74          0.74          0.74          0.74
      3.03333          0.74          0.74          0.74          0.74
      3.04444          0.74          0.74          0.74          0.74
      3.05556          0.74          0.74          0.74          0.74
      3.06667          0.74          0.74          0.74          0.74
      3.07778          0.74          0.74          0.74          0.74
      3.08889          0.74          0.74          0.74          0.74
          3.1          0.74          0.74          0.74          0.74
      3.11111          0.74          0.74          0.74          0.74
      3.12222          0.74          0.74          0.74          0.74
      3.13194          0.74          0.74          0.74          0.74
      3.14167          0.74          0.74          0.74          0.74
      3.15139          0.74          0.74          0.74          0.74
      3.16111          0.74          0.74          0.74          0.74
      3.17083          0.74          0.74          0.74          0.74
      3.18056          0.74          0.74          0.74          0.74
      3.18704          0.74          0.74          0.74          0.74
      3.19352          0.74          0.74          0.74          0.74
          3.2          0.74          0.74          0.74          0.74
      3.20714          0.74          0.74          0.74          0.74
      3.21488          0.74          0.74          0.74          0.74
      3.22339          0.74          0.74          0.74          0.74
       3.2319          0.74          0.74          0.74          0.74
      3.24042          0.74          0.74          0.74          0.74
      3.24893          0.74          0.74          0.74          0.74
      3.25744          0.74          0.74          0.74          0.74
      3.26453          0.74          0.74          0.74          0.74
      3.27163          0.74          0.74          0.74          0.74
      3.27872          0.74          0.74          0.74          0.74
      3.28581          0.74          0.74          0.74          0.74
      3.29291          0.74          0.74          0.74          0.74
          3.3          0.74          0.74          0.74          0.74
      3.30769          0.74          0.74          0.74          0.74
      3.31538          0.74          0.74          0.74          0.74
      3.32244          0.74          0.74          0.74          0.74
      3.32949          0.74          0.74          0.74          0.74
      3.33654          0.74          0.74          0.74          0.74
      3.34359          0.74          0.74          0.74          0.74
      3.35064          0.74          0.74          0.74          0.74
      3.35769          0.74          0.74          0.74          0.74
      3.36474          0.74          0.74          0.74          0.74
      3.37179          0.74          0.74          0.74          0.74
      3.37744          0.74          0.74          0.74          0.74
      3.38308          0.74          0.74          0.74          0.74
      3.38872          0.74          0.74          0.74          0.74
      3.39436          0.74          0.74          0.74          0.74
          3.4          0.74          0.74          0.74          0.74
      3.40625          0.74          0.74          0.74          0.74
       3.4125          0.74          0.74          0.74          0.74
      3.41875          0.74          0.74          0.74          0.74
        3.425          0.74          0.74          0.74          0.74
      3.43125          0.74          0.74          0.74          0.74
       3.4375          0.74          0.74          0.74          0.74
      3.44375          0.74          0.74          0.74          0.74
         3.45          0.74          0.74          0.74          0.74
      3.45625          0.74          0.74          0.74          0.74
       3.4625          0.74          0.74          0.74          0.74
      3.46875          0.74          0.74          0.74          0.74
      3.47396          0.74          0.74          0.74          0.74
      3.47917          0.74          0.74          0.74          0.74
      3.48438          0.74          0.74          0.74          0.74
      3.48958          0.74          0.74          0.74          0.74
      3.49479          0.74          0.74          0.74          0.74
          3.5          0.74          0.74          0.74          0.74
      3.50556          0.74          0.74          0.74          0.74
      3.51146          0.74          0.74          0.74          0.74
      3.51736          0.74          0.74          0.74          0.74
      3.52326          0.74          0.74          0.74          0.74
      3.52875          0.74          0.74          0.74          0.74
      3.53423          0.74          0.74          0.74          0.74
      3.53971          0.74          0.74          0.74          0.74
      3.54519          0.74          0.74          0.74          0.74
      3.55067          0.74          0.74          0.74          0.74
      3.55615          0.74          0.74          0.74          0.74
      3.56163          0.74          0.74          0.74          0.74
      3.56711          0.74          0.74          0.74          0.74
      3.57259          0.74          0.74          0.74          0.74
      3.57808          0.74          0.74          0.74          0.74
      3.58356          0.74          0.74          0.74          0.74
      3.58904          0.74          0.74          0.74          0.74
      3.59452          0.74          0.74          0.74          0.74
          3.6          0.74          0.74          0.74          0.74
      3.60526          0.74          0.74          0.74          0.74
      3.61053          0.74          0.74          0.74          0.74
      3.61579          0.74          0.74          0.74          0.74
      3.62105          0.74          0.74          0.74          0.74
      3.62632          0.74          0.74          0.74          0.74
      3.63158          0.74          0.74          0.74          0.74
      3.63684          0.74          0.74          0.74          0.74
      3.64211          0.74          0.74          0.74          0.74
      3.64737          0.74          0.74          0.74          0.74
      3.65215          0.74          0.74          0.74          0.74
      3.65694          0.74          0.74          0.74          0.74
      3.66172          0.74          0.74          0.74          0.74
      3.66651          0.74          0.74          0.74          0.74
      3.67129          0.74          0.74          0.74          0.74
      3.67608          0.74          0.74          0.74          0.74
      3.68086          0.74          0.74          0.74          0.74
      3.68565          0.74          0.74          0.74          0.74
      3.69043          0.74          0.74          0.74          0.74
      3.69522          0.74          0.74          0.74          0.74
          3.7          0.74          0.74          0.74          0.74
        3.705          0.74          0.74          0.74          0.74
         3.71          0.74          0.74          0.74          0.74
        3.715          0.74          0.74          0.74          0.74
         3.72          0.74          0.74          0.74          0.74
        3.725          0.74          0.74          0.74          0.74
         3.73          0.74          0.74          0.74          0.74
        3.735          0.74          0.74          0.74          0.74
         3.74          0.74          0.74          0.74          0.74
        3.745          0.74          0.74          0.74          0.74
      3.74958          0.74          0.74          0.74          0.74
      3.75417          0.74          0.74          0.74          0.74
      3.75875          0.74          0.74          0.74          0.74
      3.76333          0.74          0.74          0.74          0.74
      3.76792          0.74          0.74          0.74          0.74
       3.7725          0.74          0.74          0.74          0.74
      3.77708          0.74          0.74          0.74          0.74
      3.78167          0.74          0.74          0.74          0.74
      3.78625          0.74          0.74          0.74          0.74
      3.79083          0.74          0.74          0.74          0.74
      3.79542          0.74          0.74          0.74          0.74
          3.8          0.74          0.74          0.74          0.74
      3.80476          0.74          0.74          0.74          0.74
      3.80952          0.74          0.74          0.74          0.74
      3.81429          0.74          0.74          0.74          0.74
      3.81905          0.74          0.74          0.74          0.74
      3.82381          0.74          0.74          0.74          0.74
      3.82857          0.74          0.74          0.74          0.74
      3.83333          0.74          0.74          0.74          0.74
       3.8381          0.74          0.74          0.74          0.74
      3.84286          0.74          0.74          0.74          0.74
      3.84762          0.74          0.74          0.74          0.74
      3.85238          0.74          0.74          0.74          0.74
      3.85714          0.74          0.74          0.74          0.74
       3.8619          0.74          0.74          0.74          0.74
      3.86667          0.74          0.74          0.74          0.74
      3.87143          0.74          0.74          0.74          0.74
      3.87619          0.74          0.74          0.74          0.74
      3.88095          0.74          0.74          0.74          0.74
      3.88571          0.74          0.74          0.74          0.74
      3.89048          0.74          0.74          0.74          0.74
      3.89524          0.74          0.74          0.74          0.74
          3.9          0.74          0.74          0.74          0.74
      3.90476          0.74          0.74          0.74          0.74
      3.90952          0.74          0.74          0.74          0.74
      3.91429          0.74          0.74          0.74          0.74
      3.91905          0.74          0.74          0.74          0.74
      3.92381          0.74          0.74          0.74          0.74
      3.92857          0.74          0.74          0.74          0.74
      3.93333          0.74          0.74          0.74          0.74
       3.9381          0.74          0.74          0.74          0.74
      3.94286          0.74          0.74          0.74          0.74
      3.94725          0.74          0.74          0.74          0.74
      3.95165          0.74          0.74          0.74          0.74
      3.95604          0.74          0.74          0.74          0.74
      3.96044          0.74          0.74          0.74          0.74
      3.96484          0.74          0.74          0.74          0.74
      3.96923          0.74          0.74          0.74          0.74
      3.97363          0.74          0.74          0.74          0.74
      3.97802          0.74          0.74          0.74          0.74
      3.98242          0.74          0.74          0.74          0.74
      3.98681          0.74          0.74          0.74          0.74
      3.99121          0.74          0.74          0.74          0.74
       3.9956          0.74          0.74          0.74          0.74
            4          0.74          0.74          0.74          0.74
      4.00455          0.74          0.74          0.74          0.74
      4.00909          0.74          0.74          0.74          0.74
      4.01364          0.74          0.74          0.74          0.74
      4.01818          0.74          0.74          0.74          0.74
      4.02273          0.74          0.74          0.74          0.74
      4.02727          0.74          0.74          0.74          0.74
      4.03182          0.74          0.74          0.74          0.74
      4.03636          0.74          0.74          0.74          0.74
      4.04091          0.74          0.74          0.74          0.74
      4.04545          0.74          0.74          0.74          0.74
         4.05          0.74          0.74          0.74          0.74
      4.05455          0.74          0.74          0.74          0.74
      4.05909          0.74          0.74          0.74          0.74
      4.06364          0.74          0.74          0.74          0.74
      4.06818          0.74          0.74          0.74          0.74
      4.07273          0.74          0.74          0.74          0.74
      4.07727          0.74          0.74          0.74          0.74
      4.08182          0.74          0.74          0.74          0.74
      4.08636          0.74          0.74          0.74          0.74
      4.09091          0.74          0.74          0.74          0.74
      4.09545          0.74          0.74          0.74          0.74
          4.1          0.74          0.74          0.74          0.74
      4.10455          0.74          0.74          0.74          0.74
      4.10909          0.74          0.74          0.74          0.74
      4.11364          0.74          0.74          0.74          0.74
      4.11818          0.74          0.74          0.74          0.74
      4.12273          0.74          0.74          0.74          0.74
      4.12727          0.74          0.74          0.74          0.74
      4.13182          0.74          0.74          0.74          0.74
      4.13636          0.74          0.74          0.74          0.74
      4.14091          0.74          0.74          0.74          0.74
      4.14545          0.74          0.74          0.74          0.74
         4.15          0.74          0.74          0.74          0.74
      4.15455          0.74          0.74          0.74          0.74
      4.15909          0.74          0.74          0.74          0.74
      4.16364          0.74          0.74          0.74          0.74