# Probe 0 (6 0.05 0.02)
# Probe 1 (7.5 0.05 0.02)
# Probe 2 (7.35 0.05 0.02)
# Probe 3 (7.725 0.05 0.02)
#       Probe             0             1             2             3
#        Time
   0.00119904      0.073726      0.073726      0.073726      0.073726
   0.00263616      0.073726      0.073726      0.073726      0.073726
   0.00435873      0.073726      0.073726     0.0737259     0.0737259
   0.00642437      0.073726     0.0737261     0.0737259     0.0737259
   0.00890212     0.0737259     0.0737261     0.0737258     0.0737259
    0.0118695     0.0737259     0.0737261     0.0737258     0.0737258
    0.0154239     0.0737259     0.0737261     0.0737257     0.0737257
    0.0196861     0.0737258     0.0737261     0.0737256     0.0737257
    0.0247919     0.0737258     0.0737262     0.0737256     0.0737256
     0.030887     0.0737257     0.0737262     0.0737255     0.0737255
    0.0381736     0.0737257     0.0737262     0.0737254     0.0737255
    0.0468387     0.0737257     0.0737261     0.0737253     0.0737254
    0.0571991     0.0737258     0.0737261     0.0737252     0.0737253
    0.0696044      0.073726      0.073726     0.0737253     0.0737254
    0.0843726     0.0737261     0.0737261     0.0737255     0.0737257
     0.101981     0.0737261     0.0737261     0.0737261     0.0737262
     0.122865     0.0737261     0.0737261     0.0737266     0.0737268
      0.14723     0.0737261      0.073726     0.0737266     0.0737269
     0.175655     0.0737264     0.0737261     0.0737263     0.0737265
     0.207361     0.0737266     0.0737258     0.0737257     0.0737254
     0.233782     0.0737255     0.0737262     0.0737267     0.0737254
     0.257001     0.0737263     0.0737254     0.0737246     0.0737248
     0.281768     0.0737225     0.0737262     0.0737286     0.0737276
     0.302289     0.0737248     0.0737263     0.0737229     0.0737257
     0.323431     0.0737206     0.0737262     0.0737283      0.073727
     0.344574     0.0737221     0.0737261     0.0737254      0.073726
     0.366422     0.0737222     0.0737256     0.0737262     0.0737244
      0.38686     0.0737226     0.0737251     0.0737264     0.0737249
      0.40602      0.073723     0.0737254     0.0737258     0.0737247
     0.424582      0.073723     0.0737259     0.0737258     0.0737249
     0.442564      0.073723     0.0737261     0.0737259     0.0737261
     0.459984     0.0737232     0.0737264     0.0737258     0.0737272
     0.477404     0.0737235     0.0737267     0.0737256     0.0737278
     0.494824     0.0737239     0.0737268     0.0737257     0.0737281
     0.512243     0.0737244     0.0737265     0.0737257     0.0737282
     0.529663     0.0737248     0.0737261     0.0737257     0.0737276
     0.547753     0.0737252     0.0737257     0.0737257     0.0737265
     0.566597     0.0737255     0.0737255     0.0737258     0.0737253
     0.586297     0.0737256     0.0737254     0.0737259     0.0737244
     0.608071     0.0737257     0.0737257     0.0737259     0.0737243
     0.631125     0.0737258     0.0737262     0.0737259     0.0737249
     0.655717     0.0737263     0.0737264     0.0737259     0.0737257
     0.680309     0.0737268     0.0737263     0.0737259     0.0737264
      0.70695      0.073727     0.0737257      0.073726     0.0737272
     0.727882     0.0737269     0.0737257     0.0737259     0.0737271
     0.747319     0.0737267     0.0737258      0.073726     0.0737268
     0.765368     0.0737266     0.0737261     0.0737261     0.0737264
     0.783416     0.0737265     0.0737265      0.073726     0.0737258
     0.803106     0.0737265     0.0737267      0.073726     0.0737255
     0.824983     0.0737265     0.0737266     0.0737261     0.0737254
      0.84686     0.0737267     0.0737263      0.073726     0.0737254
     0.866002     0.0737269     0.0737258      0.073726     0.0737254
     0.885145      0.073727     0.0737253     0.0737261     0.0737255
     0.904287     0.0737272      0.073725     0.0737261     0.0737257
      0.92343     0.0737272     0.0737252     0.0737261     0.0737258
     0.942572     0.0737271     0.0737256     0.0737261      0.073726
     0.961715      0.073727     0.0737262     0.0737261     0.0737262
     0.980857     0.0737269     0.0737268     0.0737261     0.0737265
            1     0.0737268     0.0737271      0.073726     0.0737268
      1.02128     0.0737268     0.0737271      0.073726     0.0737269
      1.04458     0.0737269     0.0737268     0.0737259     0.0737266
      1.06788     0.0737269     0.0737261     0.0737259     0.0737261
      1.09008     0.0737271     0.0737253     0.0737261     0.0737256
      1.11076     0.0737272      0.073725     0.0737264     0.0737253
      1.13097     0.0737272      0.073725     0.0737266     0.0737252
      1.15118     0.0737271     0.0737254     0.0737266     0.0737255
      1.17139     0.0737268     0.0737259     0.0737263     0.0737259
       1.1916     0.0737266     0.0737264     0.0737259     0.0737263
      1.21181     0.0737264     0.0737266     0.0737255     0.0737266
      1.23202     0.0737262     0.0737266     0.0737254     0.0737267
      1.25223     0.0737262     0.0737265     0.0737255     0.0737265
        1.273     0.0737262     0.0737263     0.0737258     0.0737261
      1.29438     0.0737262     0.0737262     0.0737261     0.0737259
      1.31576     0.0737263     0.0737263     0.0737264     0.0737259
      1.33783     0.0737265     0.0737264     0.0737265      0.073726
      1.35991     0.0737268     0.0737263     0.0737263     0.0737263
      1.38124     0.0737269     0.0737259     0.0737261     0.0737265
      1.40258     0.0737268     0.0737255     0.0737259     0.0737265
      1.42392     0.0737265     0.0737251     0.0737257     0.0737264
      1.44449     0.0737262     0.0737249     0.0737256     0.0737261
      1.46507     0.0737259     0.0737252     0.0737256     0.0737259
      1.48646     0.0737258     0.0737258     0.0737256     0.0737257
      1.50879     0.0737261     0.0737265     0.0737256     0.0737257
      1.52926     0.0737265     0.0737271     0.0737258      0.073726
      1.54887     0.0737271     0.0737273      0.073726     0.0737263
      1.56767     0.0737275     0.0737272     0.0737264     0.0737264
      1.58568     0.0737277     0.0737268     0.0737267     0.0737263
       1.6037     0.0737275     0.0737263      0.073727     0.0737262
      1.62171     0.0737271     0.0737257      0.073727      0.073726
      1.63972     0.0737265     0.0737252     0.0737268     0.0737259
      1.65774      0.073726      0.073725     0.0737264     0.0737259
      1.67485     0.0737256     0.0737251      0.073726     0.0737259
      1.69111     0.0737254     0.0737253     0.0737256      0.073726
      1.70582     0.0737255     0.0737257     0.0737253      0.073726
      1.71919     0.0737257     0.0737261     0.0737252      0.073726
      1.73195      0.073726     0.0737264     0.0737251      0.073726
      1.74414     0.0737264     0.0737267     0.0737251      0.073726
      1.75577     0.0737267     0.0737269     0.0737252      0.073726
       1.7674     0.0737269     0.0737271     0.0737254     0.0737259
      1.77903     0.0737271     0.0737271     0.0737257     0.0737259
      1.79066     0.0737272      0.073727     0.0737259     0.0737259
      1.80229     0.0737272     0.0737268     0.0737262     0.0737259
      1.81392      0.073727     0.0737266     0.0737264     0.0737259
      1.82555     0.0737268     0.0737262     0.0737266      0.073726
      1.83718     0.0737266     0.0737259     0.0737267     0.0737261
      1.84881     0.0737263     0.0737256     0.0737268     0.0737262
      1.86044     0.0737261     0.0737253     0.0737268     0.0737263
      1.87117     0.0737259     0.0737251     0.0737268     0.0737264
      1.88191     0.0737257     0.0737251     0.0737267     0.0737264
      1.89265     0.0737256     0.0737251     0.0737266     0.0737264
      1.90338     0.0737257     0.0737251     0.0737264     0.0737264
      1.91412     0.0737257     0.0737253     0.0737263     0.0737263
      1.92485     0.0737258     0.0737255     0.0737262     0.0737262
      1.93425      0.073726     0.0737258     0.0737261     0.0737261
      1.94364     0.0737261      0.073726      0.073726     0.0737261
      1.95303     0.0737263     0.0737262     0.0737259      0.073726
      1.96243     0.0737264     0.0737264     0.0737259     0.0737259
      1.97182     0.0737265     0.0737266     0.0737258     0.0737259
      1.98121     0.0737265     0.0737267     0.0737258     0.0737259
      1.99061     0.0737265     0.0737267     0.0737257     0.0737259
            2     0.0737265     0.0737268     0.0737257     0.0737259
      2.01042     0.0737265     0.0737267     0.0737257     0.0737259
      2.02106     0.0737264     0.0737266     0.0737256     0.0737259
      2.03181     0.0737263     0.0737265     0.0737256      0.073726
      2.04269     0.0737262     0.0737263     0.0737255      0.073726
       2.0537     0.0737262     0.0737261     0.0737254     0.0737261
      2.06483     0.0737262      0.073726     0.0737254     0.0737261
      2.07596     0.0737263     0.0737258     0.0737253     0.0737261
      2.08723     0.0737264     0.0737257     0.0737254     0.0737261
       2.0985     0.0737265     0.0737256     0.0737254     0.0737261
      2.10991     0.0737266     0.0737256     0.0737256     0.0737261
      2.12147     0.0737266     0.0737257     0.0737258     0.0737261
      2.13319     0.0737266     0.0737257     0.0737261     0.0737261
      2.14522     0.0737266     0.0737258     0.0737264     0.0737261
      2.15761     0.0737264     0.0737259     0.0737268      0.073726
      2.17038     0.0737262      0.073726     0.0737271      0.073726
      2.18376      0.073726     0.0737261     0.0737273      0.073726
      2.19783     0.0737257     0.0737262     0.0737273      0.073726
      2.21297     0.0737256     0.0737264     0.0737271     0.0737261
      2.22936     0.0737255     0.0737265     0.0737267     0.0737262
      2.24728     0.0737256     0.0737266      0.073726     0.0737263
      2.26365     0.0737258     0.0737265     0.0737253     0.0737264
      2.27899      0.073726     0.0737263     0.0737249     0.0737265
      2.29401     0.0737263     0.0737261     0.0737246     0.0737266
      2.30872     0.0737264     0.0737258     0.0737246     0.0737266
      2.32312     0.0737265     0.0737255     0.0737249     0.0737265
      2.33722     0.0737266     0.0737253     0.0737253     0.0737264
      2.35132     0.0737266     0.0737253     0.0737258     0.0737262
      2.36606     0.0737266     0.0737254     0.0737264      0.073726
      2.38153     0.0737266     0.0737256     0.0737269     0.0737258
      2.39738     0.0737265     0.0737259     0.0737271     0.0737257
      2.41367     0.0737263     0.0737263     0.0737272     0.0737257
      2.42996     0.0737262     0.0737266      0.073727     0.0737258
      2.44625     0.0737261     0.0737268     0.0737266     0.0737259
      2.46253      0.073726     0.0737268     0.0737262      0.073726
      2.47789     0.0737259     0.0737267     0.0737257     0.0737262
      2.49239     0.0737259     0.0737264     0.0737253     0.0737262
      2.50611      0.073726     0.0737261      0.073725     0.0737262
      2.51946     0.0737261     0.0737258     0.0737249     0.0737262
      2.53281     0.0737261     0.0737256      0.073725     0.0737261
      2.54696     0.0737262     0.0737255     0.0737251     0.0737259
      2.56069     0.0737263     0.0737256     0.0737254     0.0737258
      2.57486     0.0737263     0.0737257     0.0737258     0.0737257
      2.58904     0.0737262     0.0737259     0.0737262     0.0737257
      2.60273     0.0737261     0.0737261     0.0737265     0.0737258
      2.61643     0.0737259     0.0737262     0.0737267     0.0737259
      2.62966     0.0737257     0.0737263     0.0737268      0.073726
      2.64289     0.0737256     0.0737263     0.0737267     0.0737262
      2.65611     0.0737255     0.0737263     0.0737265     0.0737264
      2.66839     0.0737255     0.0737262     0.0737263     0.0737265
      2.68024     0.0737256     0.0737261     0.0737261     0.0737266
      2.69166     0.0737257      0.073726     0.0737259     0.0737267
      2.70308     0.0737259     0.0737259     0.0737256     0.0737267
       2.7145     0.0737262     0.0737258     0.0737255     0.0737267
      2.72639     0.0737264     0.0737258     0.0737254     0.0737266
      2.73883     0.0737266     0.0737258     0.0737253     0.0737264
       2.7507     0.0737267     0.0737259     0.0737254     0.0737262
      2.76257     0.0737267      0.073726     0.0737256     0.0737259
      2.77507     0.0737267     0.0737261     0.0737258     0.0737257
      2.78691     0.0737266     0.0737262      0.073726     0.0737255
      2.79812     0.0737264     0.0737263     0.0737263     0.0737254
      2.80934     0.0737261     0.0737263     0.0737265     0.0737253
      2.81993     0.0737258     0.0737263     0.0737266     0.0737253
      2.83052     0.0737255     0.0737263     0.0737267     0.0737254
      2.84112     0.0737252     0.0737262     0.0737267     0.0737255
      2.85171     0.0737249     0.0737261     0.0737266     0.0737256
      2.86159     0.0737247     0.0737259     0.0737265     0.0737258
      2.87148     0.0737245     0.0737258     0.0737263      0.073726
      2.88137     0.0737244     0.0737257     0.0737262     0.0737261
      2.89125     0.0737244     0.0737257      0.073726     0.0737263
      2.90213     0.0737244     0.0737256     0.0737258     0.0737264
        2.913     0.0737244     0.0737256     0.0737257     0.0737265
      2.92388     0.0737244     0.0737256     0.0737256     0.0737266
      2.93475     0.0737244     0.0737257     0.0737255     0.0737266
      2.94563     0.0737244     0.0737258     0.0737255     0.0737266
       2.9565     0.0737243     0.0737259     0.0737255     0.0737265
      2.96738     0.0737241      0.073726     0.0737256     0.0737264
      2.97825     0.0737239     0.0737262     0.0737258     0.0737262
      2.98913     0.0737237     0.0737263     0.0737259     0.0737261
            3     0.0737234     0.0737264      0.073726     0.0737259
      3.01124      0.073723     0.0737265     0.0737261     0.0737258
      3.02222     0.0737227     0.0737265     0.0737262     0.0737257
      3.03309     0.0737225     0.0737265     0.0737262     0.0737256
      3.04383     0.0737222     0.0737265     0.0737261     0.0737256
      3.05445      0.073722     0.0737264     0.0737261     0.0737256
      3.06496     0.0737219     0.0737263      0.073726     0.0737256
      3.07524     0.0737217     0.0737262     0.0737259     0.0737256
       3.0854     0.0737216      0.073726     0.0737259     0.0737256
      3.09545     0.0737214     0.0737259     0.0737258     0.0737257
       3.1055     0.0737213     0.0737258     0.0737258     0.0737257
      3.11544     0.0737211     0.0737258     0.0737257     0.0737258
      3.12538     0.0737208     0.0737257     0.0737257     0.0737258
       3.1352     0.0737205     0.0737257     0.0737257     0.0737259
      3.14492     0.0737202     0.0737257     0.0737257      0.073726
      3.15464     0.0737198     0.0737258     0.0737257     0.0737261
      3.16424     0.0737193     0.0737258     0.0737257     0.0737261
      3.17385     0.0737188     0.0737259     0.0737258     0.0737262
      3.18346     0.0737183      0.073726     0.0737258     0.0737263
      3.19306     0.0737177     0.0737261     0.0737259     0.0737264
      3.20267     0.0737171     0.0737261      0.073726     0.0737264
      3.21239     0.0737165     0.0737262     0.0737261     0.0737264
      3.22224     0.0737159     0.0737262     0.0737262     0.0737264
      3.23221     0.0737153     0.0737262     0.0737263     0.0737264
      3.24218     0.0737147     0.0737262     0.0737264     0.0737264
      3.25215     0.0737141     0.0737261     0.0737265     0.0737264
      3.26212     0.0737135      0.073726     0.0737265     0.0737263
      3.27209     0.0737129     0.0737259     0.0737265     0.0737263
      3.28207     0.0737122     0.0737258     0.0737265     0.0737262
      3.29218     0.0737116     0.0737257     0.0737265     0.0737261
      3.30229     0.0737109     0.0737257     0.0737265     0.0737261
      3.31255     0.0737102     0.0737256     0.0737264      0.073726
      3.32281     0.0737094     0.0737256     0.0737263     0.0737259
      3.33323     0.0737086     0.0737257     0.0737262     0.0737259
      3.34381     0.0737078     0.0737257      0.073726     0.0737258
      3.35475      0.073707     0.0737258     0.0737259     0.0737258
      3.36587     0.0737061     0.0737259     0.0737258     0.0737257
       3.3772     0.0737052      0.073726     0.0737256     0.0737257
      3.38895     0.0737043     0.0737261     0.0737256     0.0737258
      3.40093     0.0737034     0.0737262     0.0737255     0.0737258
      3.41341     0.0737025     0.0737263     0.0737255     0.0737258
      3.42616     0.0737015     0.0737264     0.0737256     0.0737259
      3.43837     0.0737006     0.0737265     0.0737257     0.0737259
      3.44938     0.0736997     0.0737265     0.0737258      0.073726
      3.45958     0.0736988     0.0737265     0.0737258      0.073726
       3.4689      0.073698     0.0737265     0.0737259     0.0737261
       3.4779     0.0736972     0.0737264     0.0737259     0.0737262
       3.4869     0.0736964     0.0737264      0.073726     0.0737262
      3.49623     0.0736956     0.0737263      0.073726     0.0737263
      3.50539     0.0736948     0.0737263      0.073726     0.0737263
      3.51422      0.073694     0.0737262      0.073726     0.0737263
      3.52274     0.0736933     0.0737261      0.073726     0.0737263
      3.53083     0.0736926      0.073726      0.073726     0.0737263
      3.53853      0.073692      0.073726     0.0737261     0.0737262
      3.54609     0.0736914     0.0737259     0.0737261     0.0737262
      3.55366     0.0736909     0.0737258     0.0737261     0.0737261
      3.56135     0.0736905     0.0737258     0.0737261     0.0737261
      3.56918       0.07369     0.0737257     0.0737261      0.073726
      3.57716     0.0736896     0.0737257     0.0737262     0.0737259
      3.58529     0.0736893     0.0737256     0.0737262     0.0737259
      3.59359      0.073689     0.0737256     0.0737262     0.0737258
      3.60205     0.0736888     0.0737256     0.0737262     0.0737258
      3.61071     0.0736887     0.0737256     0.0737262     0.0737258
      3.61955     0.0736887     0.0737256     0.0737262     0.0737258
      3.62883     0.0736887     0.0737257     0.0737262     0.0737258
      3.63835     0.0736889     0.0737257     0.0737262     0.0737259
       3.6484     0.0736892     0.0737258     0.0737261     0.0737259
      3.65874     0.0736896     0.0737259     0.0737261      0.073726
      3.66975     0.0736903      0.073726      0.073726      0.073726
       3.6804      0.073691     0.0737261     0.0737259     0.0737261
      3.69071     0.0736919     0.0737262     0.0737258     0.0737261
      3.70137      0.073693     0.0737263     0.0737256     0.0737261
      3.71204     0.0736943     0.0737264     0.0737256     0.0737261
       3.7227     0.0736957     0.0737264     0.0737255      0.073726
      3.73337     0.0736974     0.0737264     0.0737255      0.073726
      3.74403     0.0736992     0.0737264     0.0737255     0.0737259
       3.7547     0.0737012     0.0737264     0.0737255     0.0737259
      3.76536     0.0737034     0.0737263     0.0737256     0.0737258
      3.77603     0.0737059     0.0737262     0.0737258     0.0737258
       3.7867     0.0737086     0.0737261      0.073726     0.0737258
      3.79792     0.0737118      0.073726     0.0737261     0.0737259
      3.80915     0.0737152     0.0737259     0.0737263     0.0737259
      3.82038     0.0737189     0.0737258     0.0737265      0.073726
       3.8316      0.073723     0.0737258     0.0737266     0.0737261
      3.84213     0.0737272     0.0737257     0.0737266     0.0737262
      3.85199     0.0737315     0.0737257     0.0737267     0.0737263
      3.86186      0.073736     0.0737257     0.0737266     0.0737264
      3.87173      0.073741     0.0737257     0.0737266     0.0737264
      3.88089     0.0737459     0.0737258     0.0737265     0.0737264
       3.8894     0.0737508     0.0737258     0.0737264     0.0737264
       3.8973     0.0737556     0.0737259     0.0737263     0.0737264
       3.9052     0.0737607     0.0737259     0.0737262     0.0737264
      3.91249     0.0737657      0.073726     0.0737261     0.0737263
      3.91978      0.073771      0.073726     0.0737259     0.0737263
      3.92708     0.0737765     0.0737261     0.0737258     0.0737262
      3.93437     0.0737823     0.0737261     0.0737257     0.0737261
      3.94166     0.0737884     0.0737262     0.0737256      0.073726
      3.94895     0.0737948     0.0737262     0.0737256      0.073726
      3.95625     0.0738016     0.0737262     0.0737255     0.0737259
      3.96354     0.0738084     0.0737263     0.0737255     0.0737258
      3.97083     0.0738161     0.0737263     0.0737254     0.0737257
      3.97812     0.0738252     0.0737263     0.0737254     0.0737257
      3.98542      0.073835     0.0737263     0.0737255     0.0737256
      3.99271     0.0738455     0.0737262     0.0737255     0.0737256
            4     0.0738568     0.0737262     0.0737256     0.0737256
      4.00763     0.0738696     0.0737261     0.0737257     0.0737256
      4.01521     0.0738834     0.0737261     0.0737258     0.0737256
      4.02278     0.0738984      0.073726     0.0737259     0.0737256
      4.03036     0.0739146     0.0737259      0.073726     0.0737257
      4.03793     0.0739322     0.0737258     0.0737261     0.0737257
      4.04551     0.0739513     0.0737258     0.0737262     0.0737258
      4.05315     0.0739721     0.0737257     0.0737263     0.0737258
      4.06084     0.0739947     0.0737256     0.0737264     0.0737259
      4.06861     0.0740194     0.0737256     0.0737264      0.073726
      4.07643     0.0740462     0.0737256     0.0737265      0.073726
      4.08433     0.0740726     0.0737256     0.0737265     0.0737261
      4.09229     0.0740971     0.0737256     0.0737265     0.0737261
      4.10025     0.0741197     0.0737256     0.0737265     0.0737262
      4.10828     0.0741408     0.0737257     0.0737265     0.0737262
      4.11632     0.0741606     0.0737257     0.0737264     0.0737262
      4.12443     0.0741792     0.0737258     0.0737263     0.0737262
      4.13261     0.0741968      0.073726     0.0737263     0.0737261
      4.14087     0.0742135     0.0737261     0.0737261     0.0737261
      4.14921     0.0742295     0.0737262      0.073726     0.0737261
      4.15747     0.0742444     0.0737263     0.0737259      0.073726
      4.16573     0.0742586     0.0737264     0.0737258     0.0737259
      4.17399     0.0742722     0.0737265     0.0737257     0.0737259
      4.18233     0.0742853     0.0737266     0.0737256     0.0737258
      4.19076     0.0742979     0.0737266     0.0737255     0.0737258
      4.19919     0.0743101     0.0737267     0.0737254     0.0737257
      4.20771     0.0743219     0.0737267     0.0737253     0.0737257
      4.21632     0.0743334     0.0737267     0.0737252     0.0737257
      4.22494     0.0743446     0.0737266     0.0737252     0.0737257
      4.23364     0.0743555     0.0737266     0.0737252     0.0737258
      4.24245     0.0743663     0.0737265     0.0737252     0.0737258
      4.25126     0.0743767     0.0737264     0.0737253     0.0737258
      4.26007     0.0743868     0.0737262     0.0737253     0.0737259
      4.26888     0.0743966     0.0737261     0.0737253      0.073726
       4.2778     0.0744062      0.073726     0.0737254      0.073726
      4.28694     0.0744158     0.0737259     0.0737254     0.0737261
       4.2962      0.074425     0.0737257     0.0737254     0.0737262
      4.30571     0.0744341     0.0737256     0.0737255     0.0737262
      4.31535     0.0744428     0.0737255     0.0737255     0.0737262
      4.32513     0.0744511     0.0737254     0.0737255     0.0737262
       4.3352     0.0744588     0.0737253     0.0737255     0.0737262
      4.34543     0.0744659     0.0737253     0.0737255     0.0737261
      4.35582      0.074472     0.0737252     0.0737255     0.0737261
      4.36656     0.0744772     0.0737253     0.0737255      0.073726
      4.37729     0.0744812     0.0737253     0.0737255      0.073726
      4.38803     0.0744838     0.0737254     0.0737254     0.0737259
      4.39858      0.074485     0.0737254     0.0737254     0.0737259
      4.40913     0.0744848     0.0737255     0.0737253     0.0737258
      4.41968     0.0744832     0.0737257     0.0737251     0.0737258
      4.43024     0.0744802     0.0737258      0.073725     0.0737259
      4.44006     0.0744762     0.0737259     0.0737248     0.0737259
      4.44988      0.074471      0.073726     0.0737247     0.0737259
       4.4589     0.0744654      0.073726     0.0737245      0.073726
      4.46723     0.0744595      0.073726     0.0737243      0.073726
      4.47518     0.0744533      0.073726     0.0737241      0.073726
      4.48325     0.0744465      0.073726      0.073724     0.0737261
      4.49159      0.074439      0.073726     0.0737238     0.0737261
      4.50051     0.0744305     0.0737259     0.0737236     0.0737261
      4.50959     0.0744213     0.0737258     0.0737235     0.0737261
      4.51884     0.0744116     0.0737256     0.0737233     0.0737261
      4.52846      0.074401     0.0737255     0.0737232     0.0737261
      4.53789     0.0743902     0.0737253     0.0737232      0.073726
      4.54714     0.0743793     0.0737251     0.0737231      0.073726
      4.55638     0.0743678     0.0737249     0.0737231      0.073726
      4.56562      0.074356     0.0737247     0.0737232     0.0737259
      4.57506     0.0743434     0.0737246     0.0737232     0.0737259
      4.58451     0.0743302     0.0737244     0.0737232     0.0737258
      4.59395     0.0743163     0.0737243     0.0737232     0.0737258
      4.60362     0.0743014     0.0737242     0.0737232     0.0737258
      4.61353      0.074285     0.0737241     0.0737231     0.0737257
       4.6237     0.0742671      0.073724      0.073723     0.0737257
      4.63445     0.0742465      0.073724     0.0737227     0.0737257
      4.64553     0.0742233      0.073724     0.0737225     0.0737257
       4.6566     0.0741975     0.0737241     0.0737221     0.0737257
      4.66805     0.0741682     0.0737241     0.0737217     0.0737257
      4.67991      0.074125     0.0737241     0.0737211     0.0737257
      4.69176     0.0740732     0.0737241     0.0737206     0.0737257
      4.70362     0.0740133     0.0737241       0.07372     0.0737257
      4.71597     0.0739589      0.073724     0.0737194     0.0737256
       4.7278     0.0739154     0.0737239     0.0737188     0.0737256
      4.73914     0.0738798     0.0737237     0.0737183     0.0737255
      4.75048     0.0738489     0.0737235     0.0737179     0.0737254
      4.76183     0.0738216     0.0737233     0.0737175     0.0737253
      4.77317     0.0737968      0.073723     0.0737171     0.0737252
      4.78511     0.0737729     0.0737227     0.0737168     0.0737251
      4.79642     0.0737515     0.0737223     0.0737165      0.073725
      4.80773     0.0737308      0.073722     0.0737162     0.0737249
      4.81841     0.0737117     0.0737217     0.0737159     0.0737248
      4.82976     0.0736918     0.0737214     0.0737156     0.0737247
      4.84111     0.0736716      0.073721     0.0737153     0.0737246
      4.85246     0.0736507     0.0737207     0.0737149     0.0737246
      4.86475     0.0736269     0.0737204     0.0737144     0.0737245
      4.87602     0.0736039     0.0737202     0.0737139     0.0737245
      4.88635     0.0735816     0.0737199     0.0737134     0.0737245
      4.89669     0.0735581     0.0737197     0.0737128     0.0737245
      4.90816     0.0735292     0.0737194     0.0737122     0.0737245
      4.91964     0.0734912     0.0737191     0.0737116     0.0737245
      4.93112     0.0734495     0.0737188     0.0737109     0.0737244
       4.9426      0.073403     0.0737184     0.0737102     0.0737243
      4.95217     0.0733665      0.073718     0.0737096     0.0737242
      4.96174     0.0733347     0.0737177     0.0737091     0.0737241
       4.9713     0.0733067     0.0737173     0.0737085     0.0737239
      4.98087     0.0732816     0.0737168      0.073708     0.0737237
      4.99043      0.073259     0.0737164     0.0737075     0.0737235
            5     0.0732382     0.0737159      0.073707     0.0737233
       5.0102     0.0732176     0.0737154     0.0737065      0.073723
      5.02096     0.0731972     0.0737148      0.073706     0.0737227
      5.03248     0.0731766     0.0737143     0.0737055     0.0737224
      5.04457     0.0731563     0.0737137      0.073705     0.0737221
      5.05667     0.0731372     0.0737131     0.0737045     0.0737218
       5.0679     0.0731204     0.0737126     0.0737041     0.0737215
      5.07861      0.073105     0.0737121     0.0737038     0.0737213
      5.08958     0.0730894     0.0737116     0.0737034      0.073721
      5.10096     0.0730731     0.0737111     0.0737031     0.0737208
      5.11154     0.0730578     0.0737107     0.0737028     0.0737207
      5.12025     0.0730449     0.0737103     0.0737026     0.0737205
      5.12971     0.0730306     0.0737099     0.0737024     0.0737204
      5.13917      0.073016     0.0737095     0.0737022     0.0737202
      5.14853     0.0730011     0.0737091     0.0737021       0.07372
      5.15778     0.0729859     0.0737086      0.073702     0.0737198
      5.16684     0.0729704     0.0737082      0.073702     0.0737196
      5.17434     0.0729572     0.0737079      0.073702     0.0737195